18
	Energy:      44.8859480
C         -5.84264        2.32183       -0.29879
C         -4.86930        1.25194        0.18141
C         -3.41336        1.67868       -0.15130
H         -5.07105        0.25067       -0.25526
H         -5.00428        1.17269        1.28333
H         -3.11309        1.33784       -1.16584
H         -2.75883        1.16316        0.58452
C         -3.19624        3.21635       -0.12239
H         -3.46736        3.66134       -1.10586
H         -2.12297        3.43577        0.06190
C         -4.12250        3.84883        0.90942
C         -5.60203        3.64124        0.48459
H         -3.92955        4.93186        1.06343
H         -3.92319        3.33029        1.87385
H         -5.95434        4.46567       -0.17253
H         -6.20459        3.67383        1.41811
H         -6.90705        2.02013       -0.19869
H         -5.63585        2.47461       -1.38166
